30
Lattice="18.730744490377 0.0 0.0 17.09435905384 10.362209233331 0.0 0.0 0.0 28.396551799999997" Properties=species:S:1:pos:R:3:masses:R:1:forces:R:3 energy=-142.95752348476708 subset=2d dataset=MAD index=131 pbc="T T T"
B       28.92400395       7.44759301      14.04484796      10.81000000      -0.02183318       0.01469023       0.03065724
B       15.97656995       7.24647467      14.39941043      10.81000000       0.04519374       0.14009802      -0.02478488
B       13.10011430       7.78911053      14.41559835      10.81000000      -0.01359537       0.03156956      -0.07225408
B       25.34811936       7.59545519      14.35169349      10.81000000       0.02142519      -0.01507173      -0.03057201
B       19.56483473       7.79658725      13.99714559      10.81000000      -0.04632678      -0.13839715       0.02373140
B       22.44125514       7.25391148      13.98094507      10.81000000       0.01355183      -0.03169376       0.07007682
S       18.44746657       9.28242129      13.55876808      32.06000000       0.07598879      -0.11474054       0.24881108
S       20.05281275       7.82947497      15.84374722      32.06000000       0.04312433      -0.10727734      -0.19121087
S       31.00312366       9.33745469      15.19139622      32.06000000      -0.00273414      -0.09912432      -0.21947161
S       11.78565771       6.42129486      14.07014046      32.06000000      -0.08469944       0.21200400       0.05053560
S       13.77015485       8.29047486      12.63945630      32.06000000       0.09731972      -0.06924619       0.19717465
S       29.34803832       9.33861920      13.89024023      32.06000000      -0.00801882      -0.09915322       0.06058707
S       27.92068057       6.95228970      12.50000000      32.06000000      -0.05007120       0.07403541       0.22607868
S       16.79379216       8.97803928      14.81366300      32.06000000       0.01458326      -0.10309267      -0.15172314
S       26.17413790       8.11907233      12.69503283      32.06000000       0.05119241      -0.11517518       0.15865177
S       14.49085226       7.22887840      15.56522576      32.06000000       0.03500019       0.10920873      -0.20067516
S       23.26899325       5.70555558      13.20512659      32.06000000       0.00259540       0.09954962       0.22017259
S       23.75571186       8.62175256      14.32641097      32.06000000       0.08254724      -0.21370551      -0.04951590
S       21.76940553       6.75174485      15.75624163      32.06000000      -0.06380010       0.05223649      -0.19554666
S       24.92406514       5.70442475      14.50628658      32.06000000       0.00840151       0.09905404      -0.06065679
S       26.35144578       8.09075337      15.89655180      32.06000000       0.04972973      -0.07391135      -0.22635437
S       18.74760251       6.06501798      13.58288342      32.06000000      -0.01415389       0.10418760       0.15265311
S       28.09799210       6.92398665      15.70152300      32.06000000      -0.05111275       0.11489133      -0.15867423
S       21.05054226       7.81417975      12.83131443      32.06000000      -0.03550132      -0.10882192       0.19914039
S       17.09392549       5.76063594      14.83777420      32.06000000      -0.07573930       0.11400300      -0.24851748
S       15.48982900       7.21343293      12.55272457      32.06000000      -0.07496127       0.12382702       0.19145606
Tl      16.26068849       0.81233097      13.91334196     204.38000000      -0.06915197      -0.73708566       0.04084025
Tl       9.72727331       0.55114924      14.33864935     204.38000000       0.14015004      -1.02272939       0.02845986
Tl      20.91708703       3.86850621      14.48321219     204.38000000       0.06909941       0.73676425      -0.04000995
Tl       8.71975615       4.12969129      14.05790433     204.38000000      -0.13820327       1.02310663      -0.02905943
8
Lattice="6.9409300644296 0.0 0.0 -3.4667761937268 6.0131500049401 0.0 0.0 0.0 28.01299334" Properties=species:S:1:pos:R:3:masses:R:1:forces:R:3 energy=-30.617973951200838 subset=2d dataset=MAD index=139 pbc="T T T"
I        0.99090773       6.01250718      15.51264451     126.90447000      -0.16345238      -0.00042266      -0.37325951
I        4.71390029       3.86151328      15.51264451     126.90447000       0.08127161      -0.14182212      -0.37326340
I       -1.23974642       2.15163673      12.50034883     126.90447000      -0.08127161       0.14182212       0.37326340
I        2.48324614       0.00064282      12.50034883     126.90447000       0.16345238       0.00042266       0.37325951
I        2.23094463       3.86137322      12.50000000     126.90447000      -0.08180176      -0.14159240       0.37404826
I        1.24320924       2.15177678      15.51299334     126.90447000       0.08180176       0.14159240      -0.37404826
Ir       3.47223142       2.00407321      14.00649667     192.21700000      -0.00428969       0.00246850      -0.00000260
Ir       0.00192245       4.00907680      14.00649667     192.21700000       0.00428969      -0.00246850       0.00000260
8
Lattice="29.93269136 0.0 0.0 0.0 28.82345521 0.0 0.0 0.0 28.21845758" Properties=species:S:1:pos:R:3:masses:R:1:forces:R:3 energy=-41.79560090127961 subset=nanoclusters dataset=MAD index=307 pbc="T T T"
O       14.99538985      14.91328389      14.27644022      15.99900000      -0.45986088       0.74345569      -0.88283877
O       17.43269136      14.28050540      13.93695898      15.99900000      -1.80207148      -0.74675447       0.58810740
O       12.50000000      14.76544671      13.37126400      15.99900000       2.05715337       1.47202340      -1.62224255
O       14.52518648      12.69064433      15.71845758      15.99900000       2.96109164       0.97092735      -1.99627871
O       15.35792062      12.50000000      13.14196115      15.99900000       0.30358416       0.16142024       0.51107679
O       16.60125617      16.32345521      12.50000000      15.99900000      -2.00353959      -1.40596627       0.49129340
Te      14.08204493      15.62533443      12.57256873     127.60000000       0.29816104      -1.28828783       2.48664312
V       15.72754771      13.31769900      14.47129016      50.94150000      -1.35451825       0.09318189       0.42423932
36
Lattice="7.7708450850341 0.0 0.0 0.0 13.691004960857 0.0 0.0 0.0 4.7091402280166" Properties=species:S:1:pos:R:3:tags:I:1:masses:R:1:forces:R:3 energy=-243.5393900665149 stress="-0.0006141920987092253 0.0 0.0 0.0 0.0007242830578675293 0.0 0.0 0.0 0.00020415251217215802" subset=ideal dataset=MAD index=349 pbc="T T T"
Na       1.07738790      10.98830327       4.04161166        0      22.98977000       0.02563486      -0.04083883      -0.04710087
Na       4.96281044       9.54820417       4.04161166        0      22.98977000       0.02563486       0.04083883      -0.04710087
Na       6.69345719       2.70270169       1.68704155        0      22.98977000      -0.02563486       0.04083883      -0.04710087
Na       2.80803464       4.14280079       1.68704155        0      22.98977000      -0.02563486      -0.04083883      -0.04710087
O        3.93635974       7.38109857       3.51126108        0      15.99940000      -0.00381705      -0.01693497      -0.00879286
O        0.05093719      13.15540887       3.51126108        0      15.99940000      -0.00381705       0.01693497      -0.00879286
O        3.83448534       6.30990639       1.15669096        0      15.99940000       0.00381705       0.01693497      -0.00879286
O        7.71990789       0.53559609       1.15669096        0      15.99940000       0.00381705      -0.01693497      -0.00879286
O        4.47309097       0.27003384       3.78389415        0      15.99940000       0.00401783       0.00255321      -0.00731750
O        0.58766843       6.57546864       3.78389415        0      15.99940000       0.00401783      -0.00255321      -0.00731750
O        3.29775411      13.42097112       1.42932404        0      15.99940000      -0.00401783      -0.00255321      -0.00731750
O        7.18317666       7.11553632       1.42932404        0      15.99940000      -0.00401783       0.00255321      -0.00731750
O        3.01296585      10.70495427       2.46456883        1      15.99940000      -0.05325425      -0.01897647       0.03266930
O        6.89838839       9.83155318       2.46456883        1      15.99940000      -0.05325425       0.01897647       0.03266930
O        4.75787924       2.98605069       0.10999872        1      15.99940000       0.05325425       0.01897647       0.03266930
O        0.87245669       3.85945179       0.10999872        1      15.99940000       0.05325425      -0.01897647       0.03266930
O        3.70233871      11.55241927       3.33250218        2      15.99940000       0.04935360       0.08619807      -0.00178539
O        7.58776125       8.98408817       3.33250218        2      15.99940000       0.04935360      -0.08619807      -0.00178539
O        4.06850637       2.13858569       0.97793206        2      15.99940000      -0.04935360      -0.08619807      -0.00178539
O        0.18308383       4.70691679       0.97793206        2      15.99940000      -0.04935360       0.08619807      -0.00178539
O        0.44799695      11.52622481       1.44390542        2      15.99940000       0.06033628      -0.02790336      -0.04307737
O        4.33341950       9.01028263       1.44390542        2      15.99940000       0.06033628       0.02790336      -0.04307737
O        7.32284813       2.16478015       3.79847554        2      15.99940000      -0.06033628       0.02790336      -0.04307737
O        3.43742559       4.68072233       3.79847554        2      15.99940000      -0.06033628      -0.02790336      -0.04307737
O        1.89640507       7.93908813       1.89744328        2      15.99940000       0.09817793      -0.00396060      -0.02494901
O        5.78182761      12.59741931       1.89744328        2      15.99940000       0.09817793       0.00396060      -0.02494901
O        5.87444002       5.75191683       4.25201340        2      15.99940000      -0.09817793       0.00396060      -0.02494901
O        1.98901747       1.09358565       4.25201340        2      15.99940000      -0.09817793      -0.00396060      -0.02494901
Si       3.54450087       7.73000415       1.94804149        0      28.08550000      -0.15345634      -0.08349238       0.05153610
Si       7.42992341      12.80650329       1.94804149        0      28.08550000      -0.15345634       0.08349238       0.05153610
Si       4.22634422       5.96100081       4.30261161        0      28.08550000       0.15345634       0.08349238       0.05153610
Si       0.34092167       0.88450167       4.30261161        0      28.08550000       0.15345634      -0.08349238       0.05153610
Si       0.47228694       7.62812274       2.54698797        0      28.08550000      -0.08099063       0.06668983       0.04881761
Si       4.35770948      12.90838470       2.54698797        0      28.08550000      -0.08099063      -0.06668983       0.04881761
Si       7.29855815       6.06288222       0.19241785        0      28.08550000       0.08099063      -0.06668983       0.04881761
Si       3.41313560       0.78262026       0.19241785        0      28.08550000       0.08099063       0.06668983       0.04881761
21
Lattice="30.07486532 0.0 0.0 0.0 29.08916044 0.0 0.0 0.0 30.370383580000006" Properties=species:S:1:pos:R:3:masses:R:1:forces:R:3 energy=-123.12166345360902 subset=molecules dataset=MAD index=55 pbc="T T T"
C       13.36420964      15.64096090      16.34826095      12.01100000       0.33919792      -0.16400753      -0.12978263
C       13.57617957      13.50803423      14.05526152      12.01100000      -0.44073254      -0.38405829      -0.03575813
C       14.62081011      14.49518788      14.44882372      12.01100000      -0.06359143      -0.02325912       0.07763520
C       14.65367840      14.91963506      15.90797533      12.01100000      -0.32328804      -0.26115410       0.00330027
C       14.96286682      13.73446036      16.84568373      12.01100000      -0.05185628       0.30717739      -0.25278439
C       15.48748427      14.94170456      13.50927541      12.01100000       0.10836833       0.13375713       0.27568090
C       16.60947757      15.91786235      13.69051984      12.01100000      -0.32419979      -0.27024672      -0.04671751
H       12.50000000      14.97170353      16.25372240       1.00800000      -0.07313433      -0.05361369      -0.00336140
H       12.87626825      12.50000000      12.62133219       1.00800000       0.03130548       0.04773749       0.06952454
H       13.18245317      16.54089739      15.74347751       1.00800000      -0.01806786       0.05073576      -0.04384684
H       13.45436535      15.94694452      17.40113958       1.00800000      -0.00591798       0.02982242       0.05765598
H       14.13437440      13.01545115      16.84560926       1.00800000      -0.07237740      -0.06668266      -0.01133640
H       15.10422009      14.10832975      17.87038358       1.00800000       0.01294779      -0.01087521       0.07276076
H       15.48383136      15.63240683      16.01304171       1.00800000       0.10345278       0.09288636      -0.03167726
H       15.37854432      14.54076679      12.50000000       1.00800000      -0.05222043      -0.08521151      -0.12094028
H       15.88070084      13.21421453      16.53612295       1.00800000       0.05887846      -0.03962639       0.00707497
H       16.51636340      16.52489758      14.59915463       1.00800000       0.01181468       0.03160062       0.07184241
H       16.67028372      16.58916044      12.82064196       1.00800000       0.00711913       0.04266534      -0.02400815
H       17.57486532      15.38320110      13.73646416       1.00800000       0.02902532      -0.00967636      -0.00826874
O       12.73196161      13.02316569      14.81035419      15.99900000       0.70260118       0.41228438      -0.59572752
O       13.60947707      13.14294229      12.72094322      15.99900000       0.02067499       0.21974469       0.66873423
23
Lattice="29.890372250000002 0.0 0.0 0.0 28.94085965 0.0 0.0 0.0 31.663911070000005" Properties=species:S:1:pos:R:3:masses:R:1:forces:R:3 energy=-128.74140993092942 subset=molecules dataset=MAD index=11 pbc="T T T"
C       13.25090187      14.35077912      16.47444974      12.01100000       0.36278297      -0.00438866       0.17665456
C       14.47550061      13.78830951      18.58067837      12.01100000       0.07178618       0.14124980      -0.40120214
C       14.62733895      14.39019864      17.17327636      12.01100000       0.08396311      -0.08225856      -0.05308590
C       15.13705332      15.84033665      17.31397270      12.01100000      -0.13225474      -0.40113853      -0.01749104
C       16.17957376      13.58390508      15.24255398      12.01100000      -0.13157482       0.13058802       0.04683839
C       16.23809738      14.73070393      13.04594291      12.01100000      -0.16045802      -0.09936138       0.54075932
H       12.50000000      14.82538282      17.12137544       1.00800000      -0.06384402       0.04678827       0.04355404
H       12.94902188      13.31180654      16.28759650       1.00800000      -0.02668805      -0.07703187      -0.00092498
H       13.23215545      14.88512141      15.51455857       1.00800000       0.02437634       0.03661459      -0.10422184
H       13.75275324      14.37223868      19.16391107       1.00800000      -0.06157739       0.04023332       0.06179171
H       14.12085365      12.74887362      18.51955315       1.00800000      -0.03384035      -0.05726819       0.01353842
H       14.38776028      16.44085965      17.84909809       1.00800000      -0.04047120       0.06405126       0.03853877
H       14.99938093      15.18314611      14.71230820       1.00800000      -0.09576942       0.04184448       0.07058577
H       15.32763948      16.32467420      16.34631486       1.00800000       0.00862456       0.02440868      -0.08107267
H       15.44205262      13.80708456      19.10517966       1.00800000       0.05185836      -0.02011132       0.06289038
H       15.59602585      15.45769465      12.53284820       1.00800000      -0.03269779       0.05139634      -0.05856567
H       16.03413964      12.78304401      17.05530695       1.00800000       0.05794391      -0.05032091       0.00857746
H       16.07496965      15.85579208      17.88580371       1.00800000       0.06213200       0.01144340       0.03062316
H       16.23879619      13.77721796      12.50000000       1.00800000       0.00043174      -0.05919746      -0.02730044
H       17.27335717      15.10377904      13.07377212       1.00800000       0.06474364       0.00915592      -0.01395202
N       15.61881784      13.52180084      16.49494145      14.00700000      -0.10565064       0.32512827      -0.28270534
N       15.71093376      14.53845483      14.39091644      14.00700000       0.39439712      -0.34229220      -0.13209129
S       17.39037225      12.50000000      14.79955165      32.06000000      -0.29821347       0.27046673       0.07826135
2
Lattice="27.1378693 0.0 0.0 0.0 26.33222157 0.0 0.0 0.0 25.454138139999998" Properties=species:S:1:pos:R:3:masses:R:1:forces:R:3 energy=-6.085384804499881 subset=nanoclusters dataset=MAD index=286 pbc="T T T"
Ir      14.63786930      13.83222157      12.95413814     192.21700000      -2.22273539      -1.38638374      -0.47303883
Sn      12.50000000      12.50000000      12.50000000     118.71000000       2.22273539       1.38638374       0.47303883
5
Lattice="27.84478582 0.0 0.0 0.0 27.84478582 0.0 0.0 0.0 27.84478582" Properties=species:S:1:pos:R:3:masses:R:1:forces:R:3 energy=-7.3657401710006525 subset=nanoclusters dataset=MAD index=293 pbc="T T T"
Cu      13.92239291      13.92239291      13.92239291      63.54600000       0.00000000       0.00000000       0.00000000
Cu      12.50000000      12.50000000      15.34478582      63.54600000       0.57996865       0.57996865      -0.57996865
Cu      15.34478582      15.34478582      15.34478582      63.54600000      -0.57996865      -0.57996865      -0.57996865
Cu      15.34478582      12.50000000      12.50000000      63.54600000      -0.57996865       0.57996865       0.57996865
Cu      12.50000000      15.34478582      12.50000000      63.54600000       0.57996865      -0.57996865       0.57996865
10
Lattice="3.9018926141618 0.0 0.0 -0.00020599894338536 9.5089579237285 0.0 0.0 0.0 30.35310194" Properties=species:S:1:pos:R:3:masses:R:1:forces:R:3 energy=-36.1089723441637 subset=2d dataset=MAD index=135 pbc="T T T"
Cd       2.92644048       4.74887381      15.40560691     112.41400000      -0.00004793       0.13317754      -0.06814245
Cd       2.92628871       9.50335839      14.94758005     112.41400000       0.00000358       0.13310601       0.06769208
Cl       0.97545864       5.46464942      17.01686519      35.45000000       0.00018095      -0.20978991      -0.27242391
Cl       0.97555284       0.71018536      13.33627856      35.45000000       0.00014225      -0.20983877       0.27260803
S        0.97520185       9.03849047      16.93958886      32.06000000       0.00021278       0.49552962       0.18606900
S        0.97537607       4.28404259      13.41351722      32.06000000       0.00011595       0.49562923      -0.18602387
S        2.92647672       2.31298396      16.23169532      32.06000000      -0.00004127       0.22053270       0.52191422
S        2.92640219       7.06745698      14.12147379      32.06000000      -0.00012458       0.22061183      -0.52215755
Sb       0.97551056       1.74389356      17.85310194     121.76000000      -0.00028793      -0.63934082      -1.18870854
Sb       0.97541144       6.49841904      12.50000000     121.76000000      -0.00015380      -0.63961743       1.18917299
48
Lattice="5.595571 0.704011 0.0 0.0 22.589182 0.0 0.9644144941057858 -7.66530350874007 29.714674089999995" Properties=species:S:1:pos:R:3:masses:R:1:forces:R:3 energy=-233.08393333296408 subset=surfaces dataset=MAD index=183 pbc="T T T"
Al       0.46744466      -3.71531664      14.40248557      26.98153800      -0.02799598       0.22177389      -0.79023743
Al       1.42956500      11.22680297      15.31218852      26.98153800       0.02799598      -0.22177389       0.79023743
Al       2.39168533       3.57974058      16.22189146      26.98153800       0.04325037      -0.34287658       0.53879347
Al       3.35380566      -4.06732181      17.13159441      26.98153800      -0.00074409       0.00537120       0.32555916
Al       4.13877500      12.28281913      12.58307968      26.98153800       0.00074409      -0.00537120      -0.32555916
Al       5.10089533       4.63575675      13.49278263      26.98153800      -0.04325037       0.34287658      -0.53879347
Al       4.00456529       2.05494458      14.31940589      26.98153800      -0.14781400      -0.08522596      -0.59650770
Al       4.96668562      16.99706419      15.22910883      26.98153800       0.17262206      -0.08562692       0.24939972
Al       5.92880596       9.35000180      16.13881178      26.98153800       0.07524792      -0.19650007       0.50833374
Al       1.29535529       0.99892841      17.04851472      26.98153800       0.36083076       0.38113562      -0.38008405
Al       2.08032462      17.34906936      12.50000000      26.98153800      -0.49986717      -0.25410278       0.45006521
Al       3.04244496       9.70200697      13.40970294      26.98153800      -0.82440288       0.11973587      -0.10588354
Al       1.56377470      -1.13450448      13.57586231      26.98153800      -0.07524792       0.19650007      -0.50833374
Al       2.52589504      13.80761513      14.48556526      26.98153800      -0.17262206       0.08562692      -0.24939972
Al       3.48801537       6.16055274      15.39526820      26.98153800       0.14781400       0.08522596       0.59650770
Al       4.45013570      -1.48650964      16.30497114      26.98153800       0.82440288      -0.11973587       0.10588354
Al       5.41225604      13.45560997      17.21467409      26.98153800       0.49986717       0.25410278      -0.45006521
Al       0.60165437       6.51255791      12.66615937      26.98153800      -0.36083076      -0.38113562       0.38008405
Al       1.20677979       1.70293908      14.31940589      26.98153800       0.16429901      -0.04584682      -0.59643204
Al       2.16890012      16.64505869      15.22910883      26.98153800      -0.14598760      -0.12572828       0.24926513
Al       3.13102046       8.99799630      16.13881178      26.98153800      -0.02427182      -0.20915276       0.50808054
Al       4.09314079       1.35093391      17.04851472      26.98153800      -0.44401463       0.27973354      -0.38000742
Al       4.87811012      17.70107486      12.50000000      26.98153800       0.54728257      -0.12239214       0.45020866
Al       5.84023046      10.05401247      13.40970294      26.98153800       0.76901344       0.32039791      -0.10604007
Al       4.36156020      -0.78249898      13.57586231      26.98153800       0.02427182       0.20915276      -0.50808054
Al       5.32368054      14.15962063      14.48556526      26.98153800       0.14598760       0.12572828      -0.24926513
Al       0.69022987       5.80854724      15.39526820      26.98153800      -0.16429901       0.04584682       0.59643204
Al       1.65235020      -1.83851514      16.30497114      26.98153800      -0.76901344      -0.32039791       0.10604007
Al       2.61447054      13.10360447      17.21467409      26.98153800      -0.54728257       0.12239214      -0.45020866
Al       3.39943987       6.86456341      12.66615937      26.98153800       0.44401463      -0.27973354       0.38000742
Ni       5.60853732       0.60094934      15.34906616      58.69340000       0.02076411      -0.16428586       0.21599977
Ni       0.97508665      14.83905795      16.25876910      58.69340000       0.04850196      -0.38454157       0.29221622
Ni       1.93720698       7.19199556      17.16847205      58.69340000       0.03247449      -0.25750442      -0.96158903
Ni       2.72217632       0.95295450      12.61995733      58.69340000       0.02890817      -0.22913420       0.88130600
Ni       3.68429665      15.89507411      13.52966027      58.69340000       0.01156948      -0.09094804       0.31197807
Ni       4.64641698       8.24801173      14.43936322      58.69340000       0.00285931      -0.02158853      -1.03392893
Ni       5.55537368       1.02350177      12.54620204      58.69340000      -0.03247449       0.25750442       0.96158903
Ni       0.92192301      15.26161038      13.45590498      58.69340000      -0.04850196       0.38454157      -0.29221622
Ni       1.88404334       7.61454799      14.36560793      58.69340000      -0.02076411       0.16428586      -0.21599977
Ni       2.84616368      -0.03251440      15.27531087      58.69340000      -0.00285931       0.02158853       1.03392893
Ni       3.80828401      14.90960521      16.18501382      58.69340000      -0.01156948       0.09094804      -0.31197807
Ni       4.77040434       7.26254282      17.09471676      58.69340000      -0.02890817       0.22913420      -0.88130600
Zr       0.55602016      -4.41932731      17.13159441      91.22400000       0.02987807      -0.23546573      -0.46296321
Zr       1.34098950      11.93081363      12.58307968      91.22400000      -0.02987807       0.23546573       0.46296321
Zr       2.30310983       4.28375125      13.49278263      91.22400000      -0.02134101       0.16956990      -0.12365185
Zr       3.26523016      -3.36331114      14.40248557      91.22400000      -0.03525788       0.28058653      -0.69953086
Zr       4.22735050      11.57880847      15.31218852      91.22400000       0.03525788      -0.28058653       0.69953086
Zr       5.18947083       3.93174608      16.22189146      91.22400000       0.02134101      -0.16956990       0.12365185
60
Lattice="11.94969296 0.0 -2.87220621 0.0 10.37952751 0.0 0.73009537 0.0 5.97726512" Properties=species:S:1:pos:R:3:masses:R:1:forces:R:3 energy=-272.9146993405084 dataset=MPtrj index=113 pbc="T T T"
Co       3.52048079       4.03009558       4.14657437      58.93319400       0.14847330       0.55205765       1.25056277
Co       3.18446106       9.21985933       0.39458764      58.93319400      -0.14847330       0.55205765      -1.25056277
Co       9.15930754       6.34943193      -1.04151546      58.93319400      -0.14847330      -0.55205765      -1.25056277
Co       9.49532727       1.15966818       2.71047127      58.93319400       0.14847330      -0.55205765       1.25056277
H        5.03091337       2.93683271       2.07083577       1.00800000      -0.26212006       0.07718125      -0.03681514
H        1.67402848       8.12659647       2.47032625       1.00800000       0.26212006       0.07718125       0.03681514
H        7.64887496       7.44269480       1.03422314       1.00800000       0.26212006      -0.07718125       0.03681514
H       11.00575985       2.25293104       0.63473266       1.00800000      -0.26212006      -0.07718125      -0.03681514
H        3.81901487       2.60589819      -0.14954274       1.00800000       0.21938817      -0.02771757      -0.09788752
H        2.88592698       7.79566194       4.69070476       1.00800000      -0.21938817      -0.02771757       0.09788752
H        8.86077346       7.77362932       3.25460165       1.00800000      -0.21938817       0.02771757       0.09788752
H        9.79386135       2.58386557      -1.58564585       1.00800000       0.21938817       0.02771757      -0.09788752
H        4.15011849       6.89931242       4.96191201       1.00800000      -0.13057760      -0.46359691       0.16834961
H        2.55482336       1.70954866      -0.42074999       1.00800000       0.13057760      -0.46359691      -0.16834961
H        8.52966984       3.48021509      -1.85685310       1.00800000       0.13057760       0.46359691      -0.16834961
H       10.12496497       8.66997885       3.52580890       1.00800000      -0.13057760       0.46359691       0.16834961
H        1.15325991       3.92098692       5.06608875       1.00800000       0.04974030      -0.10925399       0.25990485
H        5.55168194       9.11075067      -0.52492673       1.00800000      -0.04974030      -0.10925399      -0.25990485
H       11.52652842       6.45854059      -1.96102984       1.00800000      -0.04974030       0.10925399      -0.25990485
H        7.12810639       1.26877684       3.62998564       1.00800000       0.04974030       0.10925399       0.25990485
H        5.44704304       6.66204130       2.55380985       1.00800000       0.01874684       0.11787206      -0.04413095
H        1.25789881       1.47227754       1.98735217       1.00800000      -0.01874684       0.11787206       0.04413095
H        7.23274529       3.71748621       0.55124906       1.00800000      -0.01874684      -0.11787206       0.04413095
H       11.42188952       8.90724997       1.11770674       1.00800000       0.01874684      -0.11787206      -0.04413095
H        5.61705213       5.21503105      -1.32061308       1.00800000      -0.49953377       0.01779219       0.14514576
H        1.08788972       0.02526730       5.86177509       1.00800000       0.49953377       0.01779219      -0.14514576
H        7.06273620       5.16449646       4.42567199       1.00800000       0.49953377      -0.01779219      -0.14514576
H       11.59189861      10.35426021      -2.75671618       1.00800000      -0.49953377      -0.01779219       0.14514576
H       11.43332503       5.08312729      -1.17497342       1.00800000      -0.02673145      -0.20864108      -0.05185733
H        7.22130978      10.27289105       2.84392922       1.00800000       0.02673145      -0.20864108       0.05185733
H        1.24646330       5.29640022       4.28003233       1.00800000       0.02673145       0.20864108       0.05185733